Self 0 0:     662.97179420
Self 0 1:     776.75211690
Self 0 2:      28.07602928
Self 0 3:       3.04968659
Self 0 4:     138.15680519
Self 0 5:     141.21700891
Self 0 6:      -8.58414342
Self 1 0:    -231.86467805
Self 1 1:    -258.52030350
Self 1 2:    -221.13078633
Self 1 3:    -217.83134104
Self 1 4:    -238.50539946
Self 1 5:    -247.84702377
Self 1 6:    -220.87816752
Self 1 7:    -222.96086743
Self 2 0:      42.84138119
Self 2 1:      34.69237705
Self 2 2:      31.97793561
Self 2 3:      28.89340439
Self 2 4:      39.75721139
Self 2 5:      32.31427852
Self 2 6:      91.25423562
Self 2 7:      92.13657548
Self 2 8:      93.97628306
Self 2 9:      91.08117615
Self 2 10:      91.11078399
Self 2 11:      92.65898650
Self 2 12:      26.17114049
Self 2 13:      25.16849049
Self 2 14:      21.86749534
Self 2 15:      19.61798615
Self 2 16:      22.29845528
Self 2 17:      23.69534428
Self 3 0:      27.94170624
Self 3 1:      25.51785212
Self 3 2:      27.02922837
Self 4 0:  107710.16601080
Self 4 1:      19.65930389
Self 4 2:  200296.99286004
Self 4 3: 10000000000000000000000000000000000000000000000000000000000000000000000000000000000000000000000000000.00000000
Pair 0 3, 1 1:      -0.61576462
Pair 0 3, 1 5:      -0.62609801
Pair 0 3, 2 1:       0.06537826
Pair 0 3, 2 2:       0.07013218
Pair 0 3, 2 3:       0.07113880
Pair 0 3, 2 5:       0.06919780
Pair 0 3, 2 12:       0.05799530
Pair 0 3, 2 13:       0.05709664
Pair 0 3, 2 14:       0.06018540
Pair 0 3, 2 15:       0.06560506
Pair 0 3, 2 16:       0.06352621
Pair 0 3, 2 17:       0.06787464
Pair 0 3, 3 0:       0.02287755
Pair 0 3, 3 1:       0.02283017
Pair 0 3, 3 2:       0.02321649
Pair 0 3, 4 1:       0.01892629
Pair 0 6, 1 1:      -0.98207237
Pair 0 6, 1 5:      -0.98657125
Pair 0 6, 2 1:       0.10882588
Pair 0 6, 2 2:       0.12053867
Pair 0 6, 2 3:       0.12571285
Pair 0 6, 2 5:       0.12356620
Pair 0 6, 2 12:       0.09023474
Pair 0 6, 2 13:       0.08869121
Pair 0 6, 2 14:       0.09590360
Pair 0 6, 2 15:       0.10782132
Pair 0 6, 2 16:       0.10307080
Pair 0 6, 2 17:       0.11275334
Pair 0 6, 3 0:       0.02871661
Pair 0 6, 3 1:       0.02870962
Pair 0 6, 3 2:       0.02922398
Pair 0 6, 4 1:       0.02320874
Pair 1 1, 2 1:      -1.99006127
Pair 1 1, 2 2:      -3.38817116
Pair 1 1, 2 3:      -4.54479809
Pair 1 1, 2 5:      -3.86003947
Pair 1 1, 2 12:      -2.83950500
Pair 1 1, 2 13:      -3.47180841
Pair 1 1, 2 14:      -4.42158280
Pair 1 1, 2 15:      -4.01968061
Pair 1 1, 2 16:      -2.80361966
Pair 1 1, 2 17:      -3.13704697
Pair 1 1, 3 0:      -0.52772453
Pair 1 1, 3 1:      -0.52687405
Pair 1 1, 3 2:      -0.54153816
Pair 1 1, 4 1:      -0.39924786
Pair 1 5, 2 1:      -2.08734153
Pair 1 5, 2 2:      -3.34297305
Pair 1 5, 2 3:      -4.11581848
Pair 1 5, 2 5:      -3.37477105
Pair 1 5, 2 12:      -2.63419971
Pair 1 5, 2 13:      -3.10199474
Pair 1 5, 2 14:      -3.88253141
Pair 1 5, 2 15:      -3.74005438
Pair 1 5, 2 16:      -2.68523136
Pair 1 5, 2 17:      -3.07224425
Pair 1 5, 3 0:      -0.51312049
Pair 1 5, 3 1:      -0.51193194
Pair 1 5, 3 2:      -0.52610845
Pair 1 5, 4 1:      -0.39024559
Pair 2 1, 3 0:       0.05112143
Pair 2 1, 3 1:       0.05091759
Pair 2 1, 3 2:       0.05246552
Pair 2 1, 4 1:       0.03694099
Pair 2 2, 3 0:       0.04629171
Pair 2 2, 3 1:       0.04613881
Pair 2 2, 3 2:       0.04739037
Pair 2 2, 4 1:       0.03489556
Pair 2 3, 3 0:       0.04395130
Pair 2 3, 3 1:       0.04387174
Pair 2 3, 3 2:       0.04493452
Pair 2 3, 4 1:       0.03422550
Pair 2 5, 3 0:       0.04511656
Pair 2 5, 3 1:       0.04507744
Pair 2 5, 3 2:       0.04615835
Pair 2 5, 4 1:       0.03494994
Pair 2 12, 3 0:       0.05529783
Pair 2 12, 3 1:       0.05512515
Pair 2 12, 3 2:       0.05684977
Pair 2 12, 4 1:       0.03933768
Pair 2 13, 3 0:       0.05474520
Pair 2 13, 3 1:       0.05460990
Pair 2 13, 3 2:       0.05628036
Pair 2 13, 4 1:       0.03946441
Pair 2 14, 3 0:       0.05179505
Pair 2 14, 3 1:       0.05166277
Pair 2 14, 3 2:       0.05318873
Pair 2 14, 4 1:       0.03816235
Pair 2 15, 3 0:       0.04944535
Pair 2 15, 3 1:       0.04928009
Pair 2 15, 3 2:       0.05072025
Pair 2 15, 4 1:       0.03663338
Pair 2 16, 3 0:       0.05238356
Pair 2 16, 3 1:       0.05218271
Pair 2 16, 3 2:       0.05378809
Pair 2 16, 4 1:       0.03762554
Pair 2 17, 3 0:       0.04961367
Pair 2 17, 3 1:       0.04941325
Pair 2 17, 3 2:       0.05088927
Pair 2 17, 4 1:       0.03628731
Pair 3 0, 4 1:       0.10322043
Pair 3 1, 4 1:       0.11091310
Pair 3 2, 4 1:       0.09394245
Self 0 0:    -233.95438952
Self 0 1:    -261.66905238
Self 0 2:    -223.09139395
Self 0 3:    -219.61105909
Self 0 4:    -239.78850166
Self 0 5:    -250.42583373
Self 0 6:    -223.03178214
Self 0 7:    -225.24981085
Self 1 0:      55.80826936
Self 1 1:      43.27057833
Self 1 2:      41.42326510
Self 1 3:      45.38076548
Self 1 4:      54.51664869
Self 1 5:      62.46976261
Self 1 6:     164.50091581
Self 1 7:     164.48992005
Self 1 8:     164.96088453
Self 1 9:     160.50398282
Self 1 10:     164.03086502
Self 1 11:     164.59424363
Self 1 12:      25.96670112
Self 1 13:      25.19601887
Self 1 14:      20.21041453
Self 1 15:      19.47604188
Self 1 16:      22.37463879
Self 1 17:      24.83298010
Pair 0 1, 1 12:      -2.76494028
Pair 0 1, 1 13:      -3.65739905
Pair 0 1, 1 14:      -4.98842779
Pair 0 1, 1 15:      -4.26395975
Pair 0 1, 1 16:      -2.69758422
Pair 0 1, 1 17:      -3.06801849
Pair 0 5, 1 12:      -2.58067821
Pair 0 5, 1 13:      -3.24579309
Pair 0 5, 1 14:      -4.37872301
Pair 0 5, 1 15:      -4.07586228
Pair 0 5, 1 16:      -2.64233062
Pair 0 5, 1 17:      -3.12846210
