Box 231: 1,0,2
Self 0 0:      19.46341537
Self 0 1:   26033.96846257
Self 0 2:  310528.73206174
Self 0 3:      31.23674131
Self 0 4:      24.26543783
Self 0 5: 1503081.62227547
Self 0 6:      35.04398817
Self 0 7:     160.31694364
Self 1 0:       3.06508043
Self 1 1:  111927.41142369
Self 1 2:  111922.95792584
Self 1 3:      12.91240570
Self 1 4:       8.81644972
Self 1 5:      44.77471890
Self 1 6:      41.63202967
Self 1 7:      15.63469273
Self 1 8:      14.14644523
Pair 0 0, 1 0:      -0.86172762
Pair 0 0, 1 3:      -0.61336986
Pair 0 0, 1 4:      -0.94438319
Pair 0 0, 1 7:      -0.19257876
Pair 0 0, 1 8:      -0.33576073
Pair 0 3, 1 0:       0.05518790
Pair 0 3, 1 3:      -1.70446564
Pair 0 3, 1 4:      -1.77631327
Pair 0 3, 1 7:      -0.84847247
Pair 0 3, 1 8:      -0.93848754
Pair 0 4, 1 0:      -0.52977165
Pair 0 4, 1 3:      -0.42254097
Pair 0 4, 1 4:      -0.67130334
Pair 0 4, 1 7:      -0.19260581
Pair 0 4, 1 8:      -0.32730202
Pair 0 6, 1 0:      -0.21544277
Pair 0 6, 1 3:      -0.11823155
Pair 0 6, 1 4:      -0.08954860
Pair 0 6, 1 7:      -0.34932034
Pair 0 6, 1 8:      -0.73475208
Box 243: 1,1,2
Self 0 0:      18.60168775
Self 0 1:   26033.92169315
Self 0 2:  310528.74045677
Self 0 3:      31.29192920
Self 0 4:      23.73566618
Self 0 5: 1503081.47802343
Self 0 6:      34.82854540
Self 0 7:     159.53201946
Box 255: 1,2,2
Self 0 0:      19.99726174
Self 0 1:      31.43890089
Self 0 2:      26.06229676
Self 0 3:      27.30883028
Self 0 4:      26.32730048
Self 0 5:      51.19468564
Self 0 6:      21.18757264
Self 0 7:      25.14736531
Box 256: 1,2,3
Self 0 0:      19.99726174
Self 0 1:      31.43890089
Self 0 2:      26.06229676
Self 0 3:      27.30883028
Self 0 4:      26.32730048
Self 0 5:      51.19468564
Self 0 6:      21.18757264
Self 0 7:      25.14736531
Box 292: 1,5,3
Self 0 0:      17.08930127
Self 0 1:    3014.31484864
Self 0 2:      22.38667569
Self 0 3:     579.39406059
Self 0 4:     123.06062875
Box 293: 1,5,4
Self 0 0:      17.08930127
Self 0 1:    3014.31484864
Self 0 2:      22.38667569
Self 0 3:     579.39406059
Self 0 4:     123.06062875
Box 304: 1,6,3
Self 0 0:       2.81306821
Self 0 1:      23.58679470
Self 0 2:   13362.45236377
Self 0 3:      -0.84507007
Self 0 4:       5.54580954
Self 0 5:       0.17764736
Self 0 6:     477.57616848
Self 0 7:      -2.26255889
Self 0 8:       3.19511549
Self 0 9:      -1.26385731
Box 305: 1,6,4
Self 0 0:     258.32335330
Self 0 1:     318.00406463
Self 0 2:     263.84954364
Self 0 3:     289.73348044
Self 0 4:     268.70913006
Self 0 5:     349.08428144
Self 0 6:     263.39801689
Self 0 7:     270.30182932
Self 0 8:     266.26225997
Self 0 9:     271.02504246
Self 0 10:     272.52079692
Self 0 11:     272.20643027
Self 0 12:     266.51009545
Self 0 13:     259.84783327
Self 0 14:     273.50865901
Self 0 15:     261.95477493
Self 0 16:     253.99640418
Self 0 17:     261.59294437
Self 0 18:     269.82629905
Self 0 19:     255.91178055
Self 0 20:     263.51428097
Self 0 21:     260.49555129
Self 0 22:     254.54734066
Self 0 23:     266.80294895
Self 0 24:     255.04521139
Self 0 25:     250.79025669
Self 0 26:     257.65204756
Self 0 27:     271.74849570
Self 0 28:     260.55020186
Self 0 29:     262.87080037
Self 0 30:     261.01358946
Self 0 31:     262.95857701
Self 0 32:     268.74234942
Self 0 33:     268.60567255
Self 0 34:     264.01555442
Self 1 0:      -1.05139651
Self 1 1:      22.04557470
Self 1 2:   13361.56369057
Self 1 3:      -2.66486176
Self 1 4:       3.13478402
Self 1 5:      -1.15036463
Self 1 6:     475.69213026
Self 1 7:      -4.13813883
Self 1 8:      -0.11790199
Self 1 9:      -1.35138260
Pair 0 0, 1 0:       3.86446472
Pair 0 0, 1 3:       1.81979169
Pair 0 0, 1 4:       2.41102552
Pair 0 0, 1 5:       1.32801199
Pair 0 0, 1 7:       1.87557993
Pair 0 0, 1 8:       3.31301749
Pair 0 0, 1 9:       0.08752529
Pair 0 2, 1 0:      14.80956229
Pair 0 2, 1 3:       2.68613821
Pair 0 2, 1 4:       1.08435186
Pair 0 2, 1 5:       0.76495953
Pair 0 2, 1 7:       2.02222853
Pair 0 2, 1 8:       4.28650212
Pair 0 2, 1 9:      -1.05161709
Pair 0 4, 1 0:      15.28621119
Pair 0 4, 1 3:       3.34065468
Pair 0 4, 1 4:       0.66447756
Pair 0 4, 1 5:       0.57664458
Pair 0 4, 1 7:       2.74651773
Pair 0 4, 1 8:       4.89766834
Pair 0 4, 1 9:      -1.12716021
Pair 0 6, 1 0:      14.82800911
Pair 0 6, 1 3:       2.97610761
Pair 0 6, 1 4:       1.12536410
Pair 0 6, 1 5:       1.02560368
Pair 0 6, 1 7:       2.44018812
Pair 0 6, 1 8:       5.03277594
Pair 0 6, 1 9:      -2.23061885
Pair 0 7, 1 0:     156.91569825
Pair 0 7, 1 3:       4.09362520
Pair 0 7, 1 4:       0.00760162
Pair 0 7, 1 5:       1.12729691
Pair 0 7, 1 7:       3.82832975
Pair 0 7, 1 8:      20.28966343
Pair 0 7, 1 9:      -3.81678709
Pair 0 8, 1 0:       4.04173988
Pair 0 8, 1 3:       1.99543837
Pair 0 8, 1 4:       2.14969841
Pair 0 8, 1 5:       1.16401577
Pair 0 8, 1 7:       1.82565913
Pair 0 8, 1 8:       3.39119537
Pair 0 8, 1 9:      -0.10667133
Pair 0 12, 1 0:       9.76480635
Pair 0 12, 1 3:       3.79004501
Pair 0 12, 1 4:       0.79724283
Pair 0 12, 1 5:       1.45461465
Pair 0 12, 1 7:       3.81442188
Pair 0 12, 1 8:       7.59389805
Pair 0 12, 1 9:      -3.34025125
Pair 0 13, 1 0:       6.23184069
Pair 0 13, 1 3:       3.21543172
Pair 0 13, 1 4:       1.06719242
Pair 0 13, 1 5:       1.15221215
Pair 0 13, 1 7:       3.10266255
Pair 0 13, 1 8:       6.33400800
Pair 0 13, 1 9:      -1.99736603
Pair 0 15, 1 0:       4.51476655
Pair 0 15, 1 3:       2.28765627
Pair 0 15, 1 4:       2.05305651
Pair 0 15, 1 5:       1.36463040
Pair 0 15, 1 7:       2.26789860
Pair 0 15, 1 8:       4.27005440
Pair 0 15, 1 9:      -0.74343470
Pair 0 16, 1 0:       4.48182943
Pair 0 16, 1 3:       2.40829536
Pair 0 16, 1 4:       1.90486420
Pair 0 16, 1 5:       1.35872100
Pair 0 16, 1 7:       2.42728826
Pair 0 16, 1 8:       4.38336863
Pair 0 16, 1 9:      -0.61382118
Pair 0 17, 1 0:       5.67866152
Pair 0 17, 1 3:       3.07465001
Pair 0 17, 1 4:       1.53275481
Pair 0 17, 1 5:       1.57392780
Pair 0 17, 1 7:       2.98898238
Pair 0 17, 1 8:       6.15278206
Pair 0 17, 1 9:      -3.14202783
Pair 0 18, 1 0:       5.01287194
Pair 0 18, 1 3:       2.47014746
Pair 0 18, 1 4:       1.59856558
Pair 0 18, 1 5:       1.01117104
Pair 0 18, 1 7:       2.15593542
Pair 0 18, 1 8:       4.23277766
Pair 0 18, 1 9:      -0.69217645
Pair 0 19, 1 0:       4.62074843
Pair 0 19, 1 3:       2.41499738
Pair 0 19, 1 4:       1.63601219
Pair 0 19, 1 5:       1.12593179
Pair 0 19, 1 7:       2.20944457
Pair 0 19, 1 8:       4.17078197
Pair 0 19, 1 9:      -0.62450555
Pair 0 20, 1 0:       4.36415950
Pair 0 20, 1 3:       2.17107170
Pair 0 20, 1 4:       1.92821482
Pair 0 20, 1 5:       1.15904571
Pair 0 20, 1 7:       1.99587112
Pair 0 20, 1 8:       3.77646242
Pair 0 20, 1 9:      -0.48905708
Pair 0 21, 1 0:       4.46166461
Pair 0 21, 1 3:       2.20202283
Pair 0 21, 1 4:       1.91153358
Pair 0 21, 1 5:       1.14781078
Pair 0 21, 1 7:       2.00958279
Pair 0 21, 1 8:       3.76193316
Pair 0 21, 1 9:      -0.03938744
Pair 0 22, 1 0:       4.42539567
Pair 0 22, 1 3:       2.33995051
Pair 0 22, 1 4:       1.77379300
Pair 0 22, 1 5:       1.13753470
Pair 0 22, 1 7:       2.15380764
Pair 0 22, 1 8:       3.88465102
Pair 0 22, 1 9:       0.00718006
Pair 0 23, 1 0:       5.67494848
Pair 0 23, 1 3:       2.76818678
Pair 0 23, 1 4:       1.58774579
Pair 0 23, 1 5:       1.20179361
Pair 0 23, 1 7:       2.61296651
Pair 0 23, 1 8:       5.16770176
Pair 0 23, 1 9:      -0.73245584
Pair 0 24, 1 0:       4.04379424
Pair 0 24, 1 3:       2.15897708
Pair 0 24, 1 4:       1.58417840
Pair 0 24, 1 5:       0.85060141
Pair 0 24, 1 7:       1.71124709
Pair 0 24, 1 8:       3.10430544
Pair 0 24, 1 9:       0.27719120
Pair 0 25, 1 0:       4.09479472
Pair 0 25, 1 3:       2.17786376
Pair 0 25, 1 4:       1.59420040
Pair 0 25, 1 5:       0.96277573
Pair 0 25, 1 7:       1.86779285
Pair 0 25, 1 8:       3.35656653
Pair 0 25, 1 9:       0.20639872
Pair 0 26, 1 0:       3.97238045
Pair 0 26, 1 3:       2.03622897
Pair 0 26, 1 4:       1.80543845
Pair 0 26, 1 5:       0.99764285
Pair 0 26, 1 7:       1.73203201
Pair 0 26, 1 8:       3.14891030
Pair 0 26, 1 9:       0.26595035
Pair 0 28, 1 0:       4.76826874
Pair 0 28, 1 3:       2.57801036
Pair 0 28, 1 4:       1.42442572
Pair 0 28, 1 5:       0.87951918
Pair 0 28, 1 7:       2.20939043
Pair 0 28, 1 8:       3.91263434
Pair 0 28, 1 9:       0.07604055
Pair 0 29, 1 0:       4.89019952
Pair 0 29, 1 3:       2.53677032
Pair 0 29, 1 4:       1.43903656
Pair 0 29, 1 5:       0.87182838
Pair 0 29, 1 7:       2.14337999
Pair 0 29, 1 8:       3.98109710
Pair 0 29, 1 9:      -0.01551185
Pair 0 30, 1 0:       3.88861747
Pair 0 30, 1 3:       1.96343201
Pair 0 30, 1 4:       1.88691066
Pair 0 30, 1 5:       0.99774408
Pair 0 30, 1 7:       1.63767258
Pair 0 30, 1 8:       3.01537546
Pair 0 30, 1 9:       0.33889463
Pair 0 31, 1 0:       3.68338694
Pair 0 31, 1 3:       1.80456151
Pair 0 31, 1 4:       2.05410023
Pair 0 31, 1 5:       1.01859410
Pair 0 31, 1 7:       1.51915749
Pair 0 31, 1 8:       2.76003894
Pair 0 31, 1 9:       0.49626692
Pair 0 32, 1 0:       3.81186299
Pair 0 32, 1 3:       1.90562773
Pair 0 32, 1 4:       1.96187448
Pair 0 32, 1 5:       0.92461660
Pair 0 32, 1 7:       1.45092592
Pair 0 32, 1 8:       2.77228506
Pair 0 32, 1 9:       0.46755925
Pair 0 33, 1 0:       4.02395323
Pair 0 33, 1 3:       1.87861746
Pair 0 33, 1 4:       2.31699933
Pair 0 33, 1 5:       1.18869027
Pair 0 33, 1 7:       1.73885070
Pair 0 33, 1 8:       3.17838175
Pair 0 33, 1 9:       0.34924839
Pair 0 34, 1 0:       4.05913908
Pair 0 34, 1 3:       1.99287435
Pair 0 34, 1 4:       2.12858466
Pair 0 34, 1 5:       1.13609383
Pair 0 34, 1 7:       1.79833256
Pair 0 34, 1 8:       3.27337023
Pair 0 34, 1 9:       0.28448328
Box 317: 1,7,4
Self 0 0:      -1.85165062
Self 0 1:       5.45457566
Self 0 2:     365.08077370
Self 0 3:       8.85766355
Self 0 4:      96.02382551
Self 0 5:       4.96890215
Self 0 6:    9398.07115134
Self 0 7:       0.94564021
Self 0 8:       5.94200341
Self 0 9:      -0.03327014
Self 1 0:      -1.13204878
Self 1 1:      32.28271636
Self 1 2:     670.71408468
Self 1 3:       3.15339674
Self 1 4:       5.23739305
Self 1 5:       1.31137521
Self 1 6:     637.55469848
Self 1 7:       9.87267335
Self 1 8:       6.08114659
Self 1 9:       4.06282223
Pair 0 0, 1 0:       0.01285849
Pair 0 0, 1 3:       0.07073535
Pair 0 0, 1 4:      -0.18061371
Pair 0 0, 1 5:      -0.08962123
Pair 0 0, 1 7:      -0.04021975
Pair 0 0, 1 8:      -0.16535158
Pair 0 0, 1 9:      -0.33991727
Pair 0 1, 1 0:      -0.09058120
Pair 0 1, 1 3:       0.18306390
Pair 0 1, 1 4:      -0.24831674
Pair 0 1, 1 5:       0.01047677
Pair 0 1, 1 7:       0.18897179
Pair 0 1, 1 8:       0.58702299
Pair 0 1, 1 9:      -1.12339110
Pair 0 3, 1 0:      -0.00206398
Pair 0 3, 1 3:       0.10599309
Pair 0 3, 1 4:      -0.12586701
Pair 0 3, 1 5:      -0.07134511
Pair 0 3, 1 7:       0.00296985
Pair 0 3, 1 8:       0.05391641
Pair 0 3, 1 9:      -0.19107897
Pair 0 5, 1 0:      -0.00247639
Pair 0 5, 1 3:      -0.07050344
Pair 0 5, 1 4:       0.07652591
Pair 0 5, 1 5:       0.05475350
Pair 0 5, 1 7:       0.01793055
Pair 0 5, 1 8:      -0.02561640
Pair 0 5, 1 9:      -0.12542681
Pair 0 7, 1 0:       0.03170116
Pair 0 7, 1 3:      -0.01643639
Pair 0 7, 1 4:       0.04638739
Pair 0 7, 1 5:       0.01874882
Pair 0 7, 1 7:      -0.02388955
Pair 0 7, 1 8:      -0.09979465
Pair 0 7, 1 9:      -0.01688144
Pair 0 8, 1 0:       0.07682917
Pair 0 8, 1 3:       0.09790714
Pair 0 8, 1 4:       0.00653712
Pair 0 8, 1 5:      -0.02403659
Pair 0 8, 1 7:       0.01275059
Pair 0 8, 1 8:       0.04456471
Pair 0 8, 1 9:      -0.08753041
Pair 0 9, 1 0:      -0.01294903
Pair 0 9, 1 3:       0.01607988
Pair 0 9, 1 4:       0.10475196
Pair 0 9, 1 5:       0.03858422
Pair 0 9, 1 7:       0.03029156
Pair 0 9, 1 8:       0.08620214
Pair 0 9, 1 9:      -0.13472391
Box 318: 1,7,5
Self 0 0:      -1.83879213
Self 0 1:       5.36399446
Self 0 2:     364.91672068
Self 0 3:       8.85559957
Self 0 4:      96.12534315
Self 0 5:       4.96642576
Self 0 6:    9398.08060722
Self 0 7:       0.97734137
Self 0 8:       6.01883258
Self 0 9:      -0.04621918
Box 329: 1,8,4
Self 0 0:      19.12595360
Self 0 1:     152.33110085
Self 0 2:      20.61904707
Self 0 3:      22.93272126
Self 0 4:      22.98615150
Self 0 5:      22.49216425
Self 1 0:     234.57949002
Self 1 1:     239.27661198
Self 1 2:     254.51782987
Self 1 3:     239.54696735
Self 1 4:     253.67523334
Self 1 5:     243.88717070
Self 1 6:   16322.17326900
Self 1 7:    3333.21152869
Self 1 8:     577.56367994
Self 1 9:     261.29965276
Self 1 10:     248.06092812
Self 1 11:     259.18169567
Self 1 12:     247.89019179
Self 1 13:     262.64977702
Self 1 14:     243.87790955
Self 1 15:     252.79826536
Self 1 16:     257.13579811
Self 1 17:     300.98819020
Self 1 18:     234.82541715
Self 1 19:     236.08423920
Self 1 20:     226.90594715
Self 1 21:     236.26512800
Self 1 22:     233.32347700
Self 1 23:     245.09952546
Self 1 24:     238.50155796
Self 1 25:     240.42403017
Self 1 26:     245.69008629
Self 1 27:     242.41089150
Self 2 0:      24.99892781
Self 2 1:      66.83699201
Self 2 2:      27.37631018
Self 2 3:      63.69296080
Self 3 0:      -4.38781428
Self 3 1:       2.47783345
Self 3 2:     361.34341973
Self 3 3:       6.83512564
Self 3 4:      93.95732383
Self 3 5:       3.81001603
Self 3 6:    9397.25028597
Self 3 7:      -0.05112995
Self 3 8:       3.96267345
Self 3 9:      -1.37236288
Pair 0 0, 1 0:       1.83675880
Pair 0 0, 1 1:       2.07461784
Pair 0 0, 1 3:       1.66481025
Pair 0 0, 1 5:       1.60666340
Pair 0 0, 1 14:       1.94692563
Pair 0 0, 1 18:       1.63606458
Pair 0 0, 1 19:       2.06969607
Pair 0 0, 1 20:       2.11622248
Pair 0 0, 1 21:       2.11004957
Pair 0 0, 1 22:       1.83614012
Pair 0 0, 1 23:       1.99061863
Pair 0 0, 1 24:       1.80065992
Pair 0 0, 1 25:       1.81237594
Pair 0 0, 1 26:      32.58470758
Pair 0 0, 1 27:       1.42691454
Pair 0 0, 2 0:       0.05905402
Pair 0 0, 2 2:       0.05911293
Pair 0 0, 3 0:       0.06530602
Pair 0 0, 3 1:       0.20392683
Pair 0 0, 3 3:       0.10548012
Pair 0 0, 3 5:       0.04234835
Pair 0 0, 3 7:      -0.01738735
Pair 0 0, 3 8:       0.04730621
Pair 0 0, 3 9:       0.12225905
Pair 0 2, 1 0:       2.39034220
Pair 0 2, 1 1:       2.43320849
Pair 0 2, 1 3:       1.96587633
Pair 0 2, 1 5:       1.92329583
Pair 0 2, 1 14:       2.31789108
Pair 0 2, 1 18:       2.11795578
Pair 0 2, 1 19:       2.93399288
Pair 0 2, 1 20:       2.65123531
Pair 0 2, 1 21:       2.89598007
Pair 0 2, 1 22:       2.31804180
Pair 0 2, 1 23:       2.58562733
Pair 0 2, 1 24:       2.67958175
Pair 0 2, 1 25:       2.85156666
Pair 0 2, 1 26:       2.03910943
Pair 0 2, 1 27:       2.17944411
Pair 0 2, 2 0:       0.07114454
Pair 0 2, 2 2:       0.07174081
Pair 0 2, 3 0:      -0.10195059
Pair 0 2, 3 1:       0.00639782
Pair 0 2, 3 3:       0.08875051
Pair 0 2, 3 5:       0.03335320
Pair 0 2, 3 7:      -0.03898160
Pair 0 2, 3 8:       0.03403026
Pair 0 2, 3 9:       0.10525721
Pair 0 3, 1 0:       3.05160709
Pair 0 3, 1 1:       2.01297582
Pair 0 3, 1 3:       1.64520761
Pair 0 3, 1 5:       1.58913263
Pair 0 3, 1 14:       1.94100233
Pair 0 3, 1 18:       3.23898216
Pair 0 3, 1 19:       3.19485959
Pair 0 3, 1 20:       3.63621074
Pair 0 3, 1 21:       3.60708002
Pair 0 3, 1 22:       3.41068073
Pair 0 3, 1 23:       3.29433062
Pair 0 3, 1 24:       4.45060367
Pair 0 3, 1 25:       4.64515537
Pair 0 3, 1 26:      64.97036568
Pair 0 3, 1 27:       3.60884175
Pair 0 3, 2 0:       0.06689756
Pair 0 3, 2 2:       0.06758885
Pair 0 3, 3 0:       0.06062290
Pair 0 3, 3 1:       0.21567089
Pair 0 3, 3 3:       0.10395795
Pair 0 3, 3 5:       0.04572159
Pair 0 3, 3 7:      -0.01652191
Pair 0 3, 3 8:       0.04898407
Pair 0 3, 3 9:       0.12056454
Pair 0 4, 1 0:       2.28357018
Pair 0 4, 1 1:       2.19633920
Pair 0 4, 1 3:       1.77419532
Pair 0 4, 1 5:       1.69867923
Pair 0 4, 1 14:       2.02470226
Pair 0 4, 1 18:       2.07797642
Pair 0 4, 1 19:       3.43782607
Pair 0 4, 1 20:       2.62999375
Pair 0 4, 1 21:       2.82660067
Pair 0 4, 1 22:       2.30723428
Pair 0 4, 1 23:       2.71701588
Pair 0 4, 1 24:       2.94841525
Pair 0 4, 1 25:       3.04626335
Pair 0 4, 1 26:       4.06059126
Pair 0 4, 1 27:       2.18507303
Pair 0 4, 2 0:       0.05183392
Pair 0 4, 2 2:       0.05229735
Pair 0 4, 3 0:       0.13533999
Pair 0 4, 3 1:       0.25707312
Pair 0 4, 3 3:       0.10988709
Pair 0 4, 3 5:       0.03136297
Pair 0 4, 3 7:      -0.04955035
Pair 0 4, 3 8:       0.01114798
Pair 0 4, 3 9:       0.12543894
Pair 0 5, 1 0:       2.15899952
Pair 0 5, 1 1:       2.18729120
Pair 0 5, 1 3:       1.82746091
Pair 0 5, 1 5:       1.71481877
Pair 0 5, 1 14:       1.96684168
Pair 0 5, 1 18:       1.98235082
Pair 0 5, 1 19:       3.16987352
Pair 0 5, 1 20:       2.48729208
Pair 0 5, 1 21:       2.63072948
Pair 0 5, 1 22:       2.24252441
Pair 0 5, 1 23:       2.64480397
Pair 0 5, 1 24:       2.70861923
Pair 0 5, 1 25:       2.80189925
Pair 0 5, 1 26:       3.60041722
Pair 0 5, 1 27:       2.03405648
Pair 0 5, 2 0:       0.06077901
Pair 0 5, 2 2:       0.06025260
Pair 0 5, 3 0:       0.00174054
Pair 0 5, 3 1:       0.12379169
Pair 0 5, 3 3:       0.11594664
Pair 0 5, 3 5:       0.03019973
Pair 0 5, 3 7:      -0.02885672
Pair 0 5, 3 8:       0.04207303
Pair 0 5, 3 9:       0.09773373
Pair 1 0, 2 0:       2.60090368
Pair 1 0, 2 2:       2.65305789
Pair 1 0, 3 0:       2.33610102
Pair 1 0, 3 1:       2.64105414
Pair 1 0, 3 3:       1.81150489
Pair 1 0, 3 5:       1.10833761
Pair 1 0, 3 7:       1.07477359
Pair 1 0, 3 8:       2.00377984
Pair 1 0, 3 9:       1.43452056
Pair 1 1, 2 0:       2.53884148
Pair 1 1, 2 2:       2.55487212
Pair 1 1, 3 0:       2.49116242
Pair 1 1, 3 1:       2.23396414
Pair 1 1, 3 3:       1.88680848
Pair 1 1, 3 5:       0.98330515
Pair 1 1, 3 7:       1.15767849
Pair 1 1, 3 8:       2.09070552
Pair 1 1, 3 9:       1.19655140
Pair 1 3, 2 0:       2.72717880
Pair 1 3, 2 2:       2.69865700
Pair 1 3, 3 0:       2.40690150
Pair 1 3, 3 1:       1.99045980
Pair 1 3, 3 3:       1.86321266
Pair 1 3, 3 5:       0.96977289
Pair 1 3, 3 7:       1.20184091
Pair 1 3, 3 8:       2.14152414
Pair 1 3, 3 9:       1.09942766
Pair 1 5, 2 0:       2.77065722
Pair 1 5, 2 2:       2.78313776
Pair 1 5, 3 0:       2.28693294
Pair 1 5, 3 1:       2.05344524
Pair 1 5, 3 3:       1.78493018
Pair 1 5, 3 5:       1.01277719
Pair 1 5, 3 7:       1.14061235
Pair 1 5, 3 8:       2.08254817
Pair 1 5, 3 9:       1.18986254
Pair 1 14, 2 0:       2.69025514
Pair 1 14, 2 2:       2.72849799
Pair 1 14, 3 0:       2.28951498
Pair 1 14, 3 1:       2.33440780
Pair 1 14, 3 3:       1.77333336
Pair 1 14, 3 5:       1.05636586
Pair 1 14, 3 7:       1.08749457
Pair 1 14, 3 8:       2.00701075
Pair 1 14, 3 9:       1.33476956
Pair 1 18, 2 0:       2.69171892
Pair 1 18, 2 2:       2.73169604
Pair 1 18, 3 0:       2.28299277
Pair 1 18, 3 1:       2.36448501
Pair 1 18, 3 3:       1.76810377
Pair 1 18, 3 5:       1.05563164
Pair 1 18, 3 7:       1.08181783
Pair 1 18, 3 8:       1.98489402
Pair 1 18, 3 9:       1.32606407
Pair 1 19, 2 0:       2.56675875
Pair 1 19, 2 2:       2.61102333
Pair 1 19, 3 0:       2.83245311
Pair 1 19, 3 1:       2.89744431
Pair 1 19, 3 3:       2.05260166
Pair 1 19, 3 5:       1.03718462
Pair 1 19, 3 7:       1.12855064
Pair 1 19, 3 8:       2.12081260
Pair 1 19, 3 9:       1.38579415
Pair 1 20, 2 0:       2.47537042
Pair 1 20, 2 2:       2.51153759
Pair 1 20, 3 0:       2.40844653
Pair 1 20, 3 1:       2.52738942
Pair 1 20, 3 3:       1.82179535
Pair 1 20, 3 5:       1.03554052
Pair 1 20, 3 7:       1.08149292
Pair 1 20, 3 8:       1.95255081
Pair 1 20, 3 9:       1.32073001
Pair 1 21, 2 0:       2.53659507
Pair 1 21, 2 2:       2.59134455
Pair 1 21, 3 0:       2.56171467
Pair 1 21, 3 1:       2.96401382
Pair 1 21, 3 3:       1.93069810
Pair 1 21, 3 5:       1.10896981
Pair 1 21, 3 7:       1.07548624
Pair 1 21, 3 8:       2.04451599
Pair 1 21, 3 9:       1.46977387
Pair 1 22, 2 0:       2.76007429
Pair 1 22, 2 2:       2.77829145
Pair 1 22, 3 0:       2.50367154
Pair 1 22, 3 1:       2.33907441
Pair 1 22, 3 3:       1.89059632
Pair 1 22, 3 5:       0.99566946
Pair 1 22, 3 7:       1.13610344
Pair 1 22, 3 8:       2.06431249
Pair 1 22, 3 9:       1.23466033
Pair 1 23, 2 0:       2.83501281
Pair 1 23, 2 2:       2.86270051
Pair 1 23, 3 0:       2.94982102
Pair 1 23, 3 1:       2.64901160
Pair 1 23, 3 3:       2.13753682
Pair 1 23, 3 5:       0.99043398
Pair 1 23, 3 7:       1.19807145
Pair 1 23, 3 8:       2.25358955
Pair 1 23, 3 9:       1.28675486
Pair 1 24, 2 0:       2.54042210
Pair 1 24, 2 2:       2.60042237
Pair 1 24, 3 0:       2.64966288
Pair 1 24, 3 1:       3.14737020
Pair 1 24, 3 3:       1.97869881
Pair 1 24, 3 5:       1.11453411
Pair 1 24, 3 7:       1.06444020
Pair 1 24, 3 8:       2.07182558
Pair 1 24, 3 9:       1.50899471
Pair 1 25, 2 0:       2.45125260
Pair 1 25, 2 2:       2.51890224
Pair 1 25, 3 0:       2.64879531
Pair 1 25, 3 1:       3.79469242
Pair 1 25, 3 3:       2.01208142
Pair 1 25, 3 5:       1.23266243
Pair 1 25, 3 7:       1.03057220
Pair 1 25, 3 8:       2.08367414
Pair 1 25, 3 9:       1.70855891
Pair 1 26, 2 0:       2.55791698
Pair 1 26, 2 2:       2.62604997
Pair 1 26, 3 0:       3.22882604
Pair 1 26, 3 1:       3.97423628
Pair 1 26, 3 3:       2.25794024
Pair 1 26, 3 5:       1.12592977
Pair 1 26, 3 7:       1.06384261
Pair 1 26, 3 8:       2.24030734
Pair 1 26, 3 9:       1.64308459
Pair 1 27, 2 0:       2.64097871
Pair 1 27, 2 2:       2.72053886
Pair 1 27, 3 0:       2.28526824
Pair 1 27, 3 1:       3.17479811
Pair 1 27, 3 3:       1.84814483
Pair 1 27, 3 5:       1.24530263
Pair 1 27, 3 7:       1.05920401
Pair 1 27, 3 8:       2.10745746
Pair 1 27, 3 9:       1.72969225
Pair 2 0, 3 0:       0.08453470
Pair 2 0, 3 1:       0.01826729
Pair 2 0, 3 3:       0.10032025
Pair 2 0, 3 5:       0.02255913
Pair 2 0, 3 7:      -0.04104804
Pair 2 0, 3 8:      -0.02038623
Pair 2 0, 3 9:      -0.19332348
Pair 2 2, 3 0:       0.08130417
Pair 2 2, 3 1:       0.01353081
Pair 2 2, 3 3:       0.10162692
Pair 2 2, 3 5:       0.01983027
Pair 2 2, 3 7:      -0.05435343
Pair 2 2, 3 8:      -0.03832981
Pair 2 2, 3 9:      -0.20245492
Box 330: 1,8,5
Self 0 0:      21.29452673
Self 0 1:     183.57889018
Self 0 2:      23.33424933
Self 0 3:      26.62598873
Self 0 4:      25.66117329
Self 0 5:      25.03280338
Self 1 0:      -1.91417726
Self 1 1:       5.00597728
Self 1 2:     365.11604115
Self 1 3:       8.73677184
Self 1 4:      95.84273038
Self 1 5:       4.85901528
Self 1 6:    9398.03507921
Self 1 7:       0.99040192
Self 1 8:       5.90224921
Self 1 9:      -0.29042637
Pair 0 0, 1 0:       0.17314637
Pair 0 0, 1 1:       0.26917179
Pair 0 0, 1 3:       0.14038243
Pair 0 0, 1 5:       0.03390672
Pair 0 0, 1 7:      -0.01047316
Pair 0 0, 1 8:       0.07076147
Pair 0 0, 1 9:       0.13668868
Pair 0 2, 1 0:       0.00711544
Pair 0 2, 1 1:       0.07486839
Pair 0 2, 1 3:       0.12100493
Pair 0 2, 1 5:       0.02252387
Pair 0 2, 1 7:      -0.03880969
Pair 0 2, 1 8:       0.05478965
Pair 0 2, 1 9:       0.12117242
Pair 0 3, 1 0:       0.18185211
Pair 0 3, 1 1:       0.28543030
Pair 0 3, 1 3:       0.14295423
Pair 0 3, 1 5:       0.03521561
Pair 0 3, 1 7:      -0.00915610
Pair 0 3, 1 8:       0.07536542
Pair 0 3, 1 9:       0.13383668
Pair 0 4, 1 0:       0.18399890
Pair 0 4, 1 1:       0.25351453
Pair 0 4, 1 3:       0.12982436
Pair 0 4, 1 5:       0.02784193
Pair 0 4, 1 7:      -0.02793531
Pair 0 4, 1 8:       0.02935045
Pair 0 4, 1 9:       0.13501701
Pair 0 5, 1 0:       0.06205223
Pair 0 5, 1 1:       0.13016114
Pair 0 5, 1 3:       0.13582117
Pair 0 5, 1 5:       0.02407824
Pair 0 5, 1 7:      -0.01459394
Pair 0 5, 1 8:       0.05528130
Pair 0 5, 1 9:       0.10943906
Box 341: 1,9,4
Self 0 0:      21.46767310
Self 0 1:     183.72501952
Self 0 2:      23.34136477
Self 0 3:      26.80784084
Self 0 4:      25.84517219
Self 0 5:      25.09485561
Box 342: 1,9,5
Self 0 0:      21.46767310
Self 0 1:     183.72501952
Self 0 2:      23.34136477
Self 0 3:      26.80784084
Self 0 4:      25.84517219
Self 0 5:      25.09485561
Box 457: 2,0,0
Self 0 0:       8.50036101
Self 0 1:      24.30582190
Self 0 2:      18.41608949
Self 0 3:      19.39850713
Self 0 4:      20.72376385
Self 0 5:      25.08918234
Self 0 6:      20.36171277
Self 0 7:      18.95768199
Self 0 8:      28.67200789
Self 0 9:      36.42876311
Self 0 10:      26.51172592
Self 0 11:      10.30558467
Self 0 12:      19.95368543
Self 0 13:      19.52660682
Self 0 14:      18.99124461
Self 0 15:      19.00731161
Self 0 16:      21.64462393
Self 0 17:      21.40558871
Self 0 18:      23.64435823
Self 1 0:       8.57692244
Self 1 1:      32.99218965
Self 1 2:      24.58311666
Self 1 3:      22.03894644
Self 1 4:      15.51545347
Self 1 5:      24.46732093
Self 1 6:      16.71959265
Self 1 7:      20.75638472
Self 1 8:      21.50867315
Self 1 9:      21.29368068
Self 1 10:      17.39156471
Self 1 11:      18.26037947
Self 1 12:      19.44885849
Self 1 13:      22.11760945
Self 1 14:      19.22789186
Self 1 15:      16.10590598
Self 1 16:      14.82709539
Self 1 17:      20.01896273
Self 1 18:      21.09301770
Pair 0 0, 1 0:      -0.22841239
Pair 0 0, 1 2:       0.42143776
Pair 0 0, 1 3:       0.27346394
Pair 0 0, 1 4:       0.17768135
Pair 0 0, 1 5:       0.98437936
Pair 0 0, 1 6:       0.34697120
Pair 0 0, 1 7:       0.98437959
Pair 0 0, 1 8:       0.87812819
Pair 0 0, 1 9:       0.62471452
Pair 0 0, 1 10:       0.58443586
Pair 0 0, 1 11:       0.78574582
Pair 0 0, 1 12:       0.65093792
Pair 0 0, 1 13:       1.20897961
Pair 0 0, 1 14:       1.13489719
Pair 0 0, 1 15:       0.55520238
Pair 0 0, 1 16:       0.35552454
Pair 0 0, 1 17:       0.71293153
Pair 0 0, 1 18:       0.41686334
Pair 0 1, 1 0:      -0.11381113
Pair 0 1, 1 2:       0.32272354
Pair 0 1, 1 3:       0.18962603
Pair 0 1, 1 4:       0.12284491
Pair 0 1, 1 5:       0.70283450
Pair 0 1, 1 6:       0.27155845
Pair 0 1, 1 7:       0.72556186
Pair 0 1, 1 8:       0.63928337
Pair 0 1, 1 9:       0.49417442
Pair 0 1, 1 10:       0.47420712
Pair 0 1, 1 11:       0.63091203
Pair 0 1, 1 12:       0.53666455
Pair 0 1, 1 13:       0.95475892
Pair 0 1, 1 14:       0.94397231
Pair 0 1, 1 15:       0.42020186
Pair 0 1, 1 16:       0.22427126
Pair 0 1, 1 17:       0.47051455
Pair 0 1, 1 18:       0.25114013
Pair 0 2, 1 0:      -0.11443859
Pair 0 2, 1 2:       0.38367826
Pair 0 2, 1 3:       0.22962007
Pair 0 2, 1 4:       0.12198221
Pair 0 2, 1 5:       0.60301687
Pair 0 2, 1 6:       0.19595363
Pair 0 2, 1 7:       0.68987860
Pair 0 2, 1 8:       0.59107101
Pair 0 2, 1 9:       0.38958430
Pair 0 2, 1 10:       0.34588247
Pair 0 2, 1 11:       0.54981297
Pair 0 2, 1 12:       0.41350709
Pair 0 2, 1 13:       0.95025942
Pair 0 2, 1 14:       0.75524368
Pair 0 2, 1 15:       0.33037609
Pair 0 2, 1 16:       0.23778224
Pair 0 2, 1 17:       0.58547044
Pair 0 2, 1 18:       0.31966889
Pair 0 3, 1 0:      -0.06585225
Pair 0 3, 1 2:       0.31431608
Pair 0 3, 1 3:       0.18425960
Pair 0 3, 1 4:       0.08674392
Pair 0 3, 1 5:       0.40847384
Pair 0 3, 1 6:       0.11497823
Pair 0 3, 1 7:       0.48105905
Pair 0 3, 1 8:       0.37729699
Pair 0 3, 1 9:       0.22898680
Pair 0 3, 1 10:       0.21458043
Pair 0 3, 1 11:       0.39309455
Pair 0 3, 1 12:       0.28037528
Pair 0 3, 1 13:       0.56394954
Pair 0 3, 1 14:       0.48357049
Pair 0 3, 1 15:       0.31874385
Pair 0 3, 1 16:       0.28799007
Pair 0 3, 1 17:       0.45481461
Pair 0 3, 1 18:       0.34175093
Pair 0 4, 1 0:      -0.05559484
Pair 0 4, 1 2:       0.24579064
Pair 0 4, 1 3:       0.13805974
Pair 0 4, 1 4:       0.06057879
Pair 0 4, 1 5:       0.33459030
Pair 0 4, 1 6:       0.08744995
Pair 0 4, 1 7:       0.38590755
Pair 0 4, 1 8:       0.28267188
Pair 0 4, 1 9:       0.18647941
Pair 0 4, 1 10:       0.19982991
Pair 0 4, 1 11:       0.34334486
Pair 0 4, 1 12:       0.26140194
Pair 0 4, 1 13:       0.38591730
Pair 0 4, 1 14:       0.40796307
Pair 0 4, 1 15:       0.33382538
Pair 0 4, 1 16:       0.30334265
Pair 0 4, 1 17:       0.34120850
Pair 0 4, 1 18:       0.31852967
Pair 0 5, 1 0:      -0.08330663
Pair 0 5, 1 2:       0.24925072
Pair 0 5, 1 3:       0.14500749
Pair 0 5, 1 4:       0.10213557
Pair 0 5, 1 5:       0.61636554
Pair 0 5, 1 6:       0.24398822
Pair 0 5, 1 7:       0.57858524
Pair 0 5, 1 8:       0.48760460
Pair 0 5, 1 9:       0.40214617
Pair 0 5, 1 10:       0.42484937
Pair 0 5, 1 11:       0.54250182
Pair 0 5, 1 12:       0.48752354
Pair 0 5, 1 13:       0.59422109
Pair 0 5, 1 14:       0.74097928
Pair 0 5, 1 15:       0.49638223
Pair 0 5, 1 16:       0.33138162
Pair 0 5, 1 17:       0.36280924
Pair 0 5, 1 18:       0.30591599
Pair 0 6, 1 0:      -0.05541182
Pair 0 6, 1 2:       0.22855050
Pair 0 6, 1 3:       0.13103011
Pair 0 6, 1 4:       0.07388718
Pair 0 6, 1 5:       0.41075516
Pair 0 6, 1 6:       0.13827575
Pair 0 6, 1 7:       0.42645649
Pair 0 6, 1 8:       0.32940761
Pair 0 6, 1 9:       0.25265855
Pair 0 6, 1 10:       0.27807957
Pair 0 6, 1 11:       0.39859200
Pair 0 6, 1 12:       0.33728538
Pair 0 6, 1 13:       0.40298367
Pair 0 6, 1 14:       0.49296285
Pair 0 6, 1 15:       0.39880360
Pair 0 6, 1 16:       0.32535449
Pair 0 6, 1 17:       0.32036202
Pair 0 6, 1 18:       0.31295117
Pair 0 7, 1 0:      -0.19068912
Pair 0 7, 1 2:       0.39109005
Pair 0 7, 1 3:       0.23610381
Pair 0 7, 1 4:       0.15004897
Pair 0 7, 1 5:       0.89786506
Pair 0 7, 1 6:       0.31903409
Pair 0 7, 1 7:       0.88639006
Pair 0 7, 1 8:       0.77589868
Pair 0 7, 1 9:       0.57565414
Pair 0 7, 1 10:       0.55652078
Pair 0 7, 1 11:       0.74422959
Pair 0 7, 1 12:       0.62837929
Pair 0 7, 1 13:       1.07917511
Pair 0 7, 1 14:       1.06263560
Pair 0 7, 1 15:       0.56286782
Pair 0 7, 1 16:       0.36541168
Pair 0 7, 1 17:       0.63514231